 TITLE="CE-QUAL-W2"
VARIABLES="Distance, m","Elevation, m","U(m/s)","W(m/s)","T(C)","RHO", "HABITAT" ,"     TDS","    Gen1","    ISS1","    ISS2","     TSS","    TISS"
ZONE T="    1.500" I= 41 J= 18 F=POINT
 0.276630E+04  0.441199E+03  0.720126E-01  0.000000E+00  0.443649E+01  0.999997E+03  0.100000E+01  0.274842E+02  0.148414E-01  0.125162E+01  0.136611E+01  0.261446E+01  0.261446E+01
 0.276630E+04  0.439650E+03  0.720126E-01  0.000000E+00  0.443649E+01  0.999997E+03  0.100000E+01  0.274842E+02  0.148414E-01  0.125162E+01  0.136611E+01  0.261446E+01  0.261446E+01
 0.276630E+04  0.438100E+03  0.720126E-01  0.000000E+00  0.443649E+01  0.999997E+03  0.100000E+01  0.274842E+02  0.148414E-01  0.125162E+01  0.136611E+01  0.261446E+01  0.261446E+01
 0.276630E+04  0.437016E+03 -0.990000E+02 -0.990000E+02 -0.990000E+02 -0.990000E+02 -0.990000E+02 -0.990000E+02 -0.990000E+02 -0.990000E+02 -0.990000E+02 -0.990000E+02 -0.990000E+02
 0.276630E+04  0.435066E+03 -0.990000E+02 -0.990000E+02 -0.990000E+02 -0.990000E+02 -0.990000E+02 -0.990000E+02 -0.990000E+02 -0.990000E+02 -0.990000E+02 -0.990000E+02 -0.990000E+02
 0.276630E+04  0.433116E+03 -0.990000E+02 -0.990000E+02 -0.990000E+02 -0.990000E+02 -0.990000E+02 -0.990000E+02 -0.990000E+02 -0.990000E+02 -0.990000E+02 -0.990000E+02 -0.990000E+02
 0.276630E+04  0.431166E+03 -0.990000E+02 -0.990000E+02 -0.990000E+02 -0.990000E+02 -0.990000E+02 -0.990000E+02 -0.990000E+02 -0.990000E+02 -0.990000E+02 -0.990000E+02 -0.990000E+02
 0.276630E+04  0.429216E+03 -0.990000E+02 -0.990000E+02 -0.990000E+02 -0.990000E+02 -0.990000E+02 -0.990000E+02 -0.990000E+02 -0.990000E+02 -0.990000E+02 -0.990000E+02 -0.990000E+02
 0.276630E+04  0.427266E+03 -0.990000E+02 -0.990000E+02 -0.990000E+02 -0.990000E+02 -0.990000E+02 -0.990000E+02 -0.990000E+02 -0.990000E+02 -0.990000E+02 -0.990000E+02 -0.990000E+02
 0.276630E+04  0.425316E+03 -0.990000E+02 -0.990000E+02 -0.990000E+02 -0.990000E+02 -0.990000E+02 -0.990000E+02 -0.990000E+02 -0.990000E+02 -0.990000E+02 -0.990000E+02 -0.990000E+02
 0.276630E+04  0.423366E+03 -0.990000E+02 -0.990000E+02 -0.990000E+02 -0.990000E+02 -0.990000E+02 -0.990000E+02 -0.990000E+02 -0.990000E+02 -0.990000E+02 -0.990000E+02 -0.990000E+02
 0.276630E+04  0.421416E+03 -0.990000E+02 -0.990000E+02 -0.990000E+02 -0.990000E+02 -0.990000E+02 -0.990000E+02 -0.990000E+02 -0.990000E+02 -0.990000E+02 -0.990000E+02 -0.990000E+02
 0.276630E+04  0.419466E+03 -0.990000E+02 -0.990000E+02 -0.990000E+02 -0.990000E+02 -0.990000E+02 -0.990000E+02 -0.990000E+02 -0.990000E+02 -0.990000E+02 -0.990000E+02 -0.990000E+02
 0.276630E+04  0.417516E+03 -0.990000E+02 -0.990000E+02 -0.990000E+02 -0.990000E+02 -0.990000E+02 -0.990000E+02 -0.990000E+02 -0.990000E+02 -0.990000E+02 -0.990000E+02 -0.990000E+02
 0.276630E+04  0.415566E+03 -0.990000E+02 -0.990000E+02 -0.990000E+02 -0.990000E+02 -0.990000E+02 -0.990000E+02 -0.990000E+02 -0.990000E+02 -0.990000E+02 -0.990000E+02 -0.990000E+02
 0.276630E+04  0.413616E+03 -0.990000E+02 -0.990000E+02 -0.990000E+02 -0.990000E+02 -0.990000E+02 -0.990000E+02 -0.990000E+02 -0.990000E+02 -0.990000E+02 -0.990000E+02 -0.990000E+02
 0.276630E+04  0.411666E+03 -0.990000E+02 -0.990000E+02 -0.990000E+02 -0.990000E+02 -0.990000E+02 -0.990000E+02 -0.990000E+02 -0.990000E+02 -0.990000E+02 -0.990000E+02 -0.990000E+02
 0.276630E+04  0.409716E+03 -0.990000E+02 -0.990000E+02 -0.990000E+02 -0.990000E+02 -0.990000E+02 -0.990000E+02 -0.990000E+02 -0.990000E+02 -0.990000E+02 -0.990000E+02 -0.990000E+02
 0.276630E+04  0.407766E+03 -0.990000E+02 -0.990000E+02 -0.990000E+02 -0.990000E+02 -0.990000E+02 -0.990000E+02 -0.990000E+02 -0.990000E+02 -0.990000E+02 -0.990000E+02 -0.990000E+02
 0.276630E+04  0.405816E+03 -0.990000E+02 -0.990000E+02 -0.990000E+02 -0.990000E+02 -0.990000E+02 -0.990000E+02 -0.990000E+02 -0.990000E+02 -0.990000E+02 -0.990000E+02 -0.990000E+02
 0.276630E+04  0.403866E+03 -0.990000E+02 -0.990000E+02 -0.990000E+02 -0.990000E+02 -0.990000E+02 -0.990000E+02 -0.990000E+02 -0.990000E+02 -0.990000E+02 -0.990000E+02 -0.990000E+02
 0.276630E+04  0.401916E+03 -0.990000E+02 -0.990000E+02 -0.990000E+02 -0.990000E+02 -0.990000E+02 -0.990000E+02 -0.990000E+02 -0.990000E+02 -0.990000E+02 -0.990000E+02 -0.990000E+02
 0.276630E+04  0.399966E+03 -0.990000E+02 -0.990000E+02 -0.990000E+02 -0.990000E+02 -0.990000E+02 -0.990000E+02 -0.990000E+02 -0.990000E+02 -0.990000E+02 -0.990000E+02 -0.990000E+02
 0.276630E+04  0.398016E+03 -0.990000E+02 -0.990000E+02 -0.990000E+02 -0.990000E+02 -0.990000E+02 -0.990000E+02 -0.990000E+02 -0.990000E+02 -0.990000E+02 -0.990000E+02 -0.990000E+02
 0.276630E+04  0.396066E+03 -0.990000E+02 -0.990000E+02 -0.990000E+02 -0.990000E+02 -0.990000E+02 -0.990000E+02 -0.990000E+02 -0.990000E+02 -0.990000E+02 -0.990000E+02 -0.990000E+02
 0.276630E+04  0.394116E+03 -0.990000E+02 -0.990000E+02 -0.990000E+02 -0.990000E+02 -0.990000E+02 -0.990000E+02 -0.990000E+02 -0.990000E+02 -0.990000E+02 -0.990000E+02 -0.990000E+02
 0.276630E+04  0.392166E+03 -0.990000E+02 -0.990000E+02 -0.990000E+02 -0.990000E+02 -0.990000E+02 -0.990000E+02 -0.990000E+02 -0.990000E+02 -0.990000E+02 -0.990000E+02 -0.990000E+02
 0.276630E+04  0.390216E+03 -0.990000E+02 -0.990000E+02 -0.990000E+02 -0.990000E+02 -0.990000E+02 -0.990000E+02 -0.990000E+02 -0.990000E+02 -0.990000E+02 -0.990000E+02 -0.990000E+02
 0.276630E+04  0.388266E+03 -0.990000E+02 -0.990000E+02 -0.990000E+02 -0.990000E+02 -0.990000E+02 -0.990000E+02 -0.990000E+02 -0.990000E+02 -0.990000E+02 -0.990000E+02 -0.990000E+02
 0.276630E+04  0.386316E+03 -0.990000E+02 -0.990000E+02 -0.990000E+02 -0.990000E+02 -0.990000E+02 -0.990000E+02 -0.990000E+02 -0.990000E+02 -0.990000E+02 -0.990000E+02 -0.990000E+02
 0.276630E+04  0.384366E+03 -0.990000E+02 -0.990000E+02 -0.990000E+02 -0.990000E+02 -0.990000E+02 -0.990000E+02 -0.990000E+02 -0.990000E+02 -0.990000E+02 -0.990000E+02 -0.990000E+02
 0.276630E+04  0.382416E+03 -0.990000E+02 -0.990000E+02 -0.990000E+02 -0.990000E+02 -0.990000E+02 -0.990000E+02 -0.990000E+02 -0.990000E+02 -0.990000E+02 -0.990000E+02 -0.990000E+02
 0.276630E+04  0.380466E+03 -0.990000E+02 -0.990000E+02 -0.990000E+02 -0.990000E+02 -0.990000E+02 -0.990000E+02 -0.990000E+02 -0.990000E+02 -0.990000E+02 -0.990000E+02 -0.990000E+02
 0.276630E+04  0.378516E+03 -0.990000E+02 -0.990000E+02 -0.990000E+02 -0.990000E+02 -0.990000E+02 -0.990000E+02 -0.990000E+02 -0.990000E+02 -0.990000E+02 -0.990000E+02 -0.990000E+02
 0.276630E+04  0.376566E+03 -0.990000E+02 -0.990000E+02 -0.990000E+02 -0.990000E+02 -0.990000E+02 -0.990000E+02 -0.990000E+02 -0.990000E+02 -0.990000E+02 -0.990000E+02 -0.990000E+02
 0.276630E+04  0.374616E+03 -0.990000E+02 -0.990000E+02 -0.990000E+02 -0.990000E+02 -0.990000E+02 -0.990000E+02 -0.990000E+02 -0.990000E+02 -0.990000E+02 -0.990000E+02 -0.990000E+02
 0.276630E+04  0.372666E+03 -0.990000E+02 -0.990000E+02 -0.990000E+02 -0.990000E+02 -0.990000E+02 -0.990000E+02 -0.990000E+02 -0.990000E+02 -0.990000E+02 -0.990000E+02 -0.990000E+02
 0.276630E+04  0.370716E+03 -0.990000E+02 -0.990000E+02 -0.990000E+02 -0.990000E+02 -0.990000E+02 -0.990000E+02 -0.990000E+02 -0.990000E+02 -0.990000E+02 -0.990000E+02 -0.990000E+02
 0.276630E+04  0.368766E+03 -0.990000E+02 -0.990000E+02 -0.990000E+02 -0.990000E+02 -0.990000E+02 -0.990000E+02 -0.990000E+02 -0.990000E+02 -0.990000E+02 -0.990000E+02 -0.990000E+02
 0.276630E+04  0.366816E+03 -0.990000E+02 -0.990000E+02 -0.990000E+02 -0.990000E+02 -0.990000E+02 -0.990000E+02 -0.990000E+02 -0.990000E+02 -0.990000E+02 -0.990000E+02 -0.990000E+02
 0.276630E+04  0.364866E+03 -0.990000E+02 -0.990000E+02 -0.990000E+02 -0.990000E+02 -0.990000E+02 -0.990000E+02 -0.990000E+02 -0.990000E+02 -0.990000E+02 -0.990000E+02 -0.990000E+02
 0.324980E+04  0.441199E+03  0.107688E-01 -0.183291E-03  0.446298E+01  0.999996E+03  0.100000E+01  0.268712E+02  0.233849E+00  0.484748E+00  0.120312E+01  0.168757E+01  0.168757E+01
 0.324980E+04  0.439650E+03  0.107688E-01 -0.183291E-03  0.446298E+01  0.999996E+03  0.100000E+01  0.268712E+02  0.233849E+00  0.484748E+00  0.120312E+01  0.168757E+01  0.168757E+01
 0.324980E+04  0.437125E+03  0.120697E-01 -0.216829E-03  0.446298E+01  0.999996E+03  0.100000E+01  0.268712E+02  0.233849E+00  0.484747E+00  0.120312E+01  0.168757E+01  0.168757E+01
 0.324980E+04  0.435175E+03  0.147941E-01 -0.261832E-03  0.446298E+01  0.999996E+03  0.100000E+01  0.268712E+02  0.233849E+00  0.484747E+00  0.120312E+01  0.168757E+01  0.168757E+01
 0.324980E+04  0.433225E+03  0.182400E-01 -0.326782E-03  0.446298E+01  0.999996E+03  0.100000E+01  0.268712E+02  0.233849E+00  0.484747E+00  0.120312E+01  0.168757E+01  0.168757E+01
 0.324980E+04  0.431275E+03  0.216219E-01  0.000000E+00  0.446298E+01  0.999996E+03  0.100000E+01  0.268712E+02  0.233850E+00  0.484747E+00  0.120312E+01  0.168757E+01  0.168757E+01
 0.324980E+04  0.430300E+03  0.216219E-01  0.000000E+00  0.446298E+01  0.999996E+03  0.100000E+01  0.268712E+02  0.233850E+00  0.484747E+00  0.120312E+01  0.168757E+01  0.168757E+01
 0.324980E+04  0.429325E+03 -0.990000E+02 -0.990000E+02 -0.990000E+02 -0.990000E+02 -0.990000E+02 -0.990000E+02 -0.990000E+02 -0.990000E+02 -0.990000E+02 -0.990000E+02 -0.990000E+02
 0.324980E+04  0.427375E+03 -0.990000E+02 -0.990000E+02 -0.990000E+02 -0.990000E+02 -0.990000E+02 -0.990000E+02 -0.990000E+02 -0.990000E+02 -0.990000E+02 -0.990000E+02 -0.990000E+02
 0.324980E+04  0.425425E+03 -0.990000E+02 -0.990000E+02 -0.990000E+02 -0.990000E+02 -0.990000E+02 -0.990000E+02 -0.990000E+02 -0.990000E+02 -0.990000E+02 -0.990000E+02 -0.990000E+02
 0.324980E+04  0.423475E+03 -0.990000E+02 -0.990000E+02 -0.990000E+02 -0.990000E+02 -0.990000E+02 -0.990000E+02 -0.990000E+02 -0.990000E+02 -0.990000E+02 -0.990000E+02 -0.990000E+02
 0.324980E+04  0.421525E+03 -0.990000E+02 -0.990000E+02 -0.990000E+02 -0.990000E+02 -0.990000E+02 -0.990000E+02 -0.990000E+02 -0.990000E+02 -0.990000E+02 -0.990000E+02 -0.990000E+02
 0.324980E+04  0.419575E+03 -0.990000E+02 -0.990000E+02 -0.990000E+02 -0.990000E+02 -0.990000E+02 -0.990000E+02 -0.990000E+02 -0.990000E+02 -0.990000E+02 -0.990000E+02 -0.990000E+02
 0.324980E+04  0.417625E+03 -0.990000E+02 -0.990000E+02 -0.990000E+02 -0.990000E+02 -0.990000E+02 -0.990000E+02 -0.990000E+02 -0.990000E+02 -0.990000E+02 -0.990000E+02 -0.990000E+02
 0.324980E+04  0.415675E+03 -0.990000E+02 -0.990000E+02 -0.990000E+02 -0.990000E+02 -0.990000E+02 -0.990000E+02 -0.990000E+02 -0.990000E+02 -0.990000E+02 -0.990000E+02 -0.990000E+02
 0.324980E+04  0.413725E+03 -0.990000E+02 -0.990000E+02 -0.990000E+02 -0.990000E+02 -0.990000E+02 -0.990000E+02 -0.990000E+02 -0.990000E+02 -0.990000E+02 -0.990000E+02 -0.990000E+02
 0.324980E+04  0.411775E+03 -0.990000E+02 -0.990000E+02 -0.990000E+02 -0.990000E+02 -0.990000E+02 -0.990000E+02 -0.990000E+02 -0.990000E+02 -0.990000E+02 -0.990000E+02 -0.990000E+02
 0.324980E+04  0.409825E+03 -0.990000E+02 -0.990000E+02 -0.990000E+02 -0.990000E+02 -0.990000E+02 -0.990000E+02 -0.990000E+02 -0.990000E+02 -0.990000E+02 -0.990000E+02 -0.990000E+02
 0.324980E+04  0.407875E+03 -0.990000E+02 -0.990000E+02 -0.990000E+02 -0.990000E+02 -0.990000E+02 -0.990000E+02 -0.990000E+02 -0.990000E+02 -0.990000E+02 -0.990000E+02 -0.990000E+02
 0.324980E+04  0.405925E+03 -0.990000E+02 -0.990000E+02 -0.990000E+02 -0.990000E+02 -0.990000E+02 -0.990000E+02 -0.990000E+02 -0.990000E+02 -0.990000E+02 -0.990000E+02 -0.990000E+02
 0.324980E+04  0.403975E+03 -0.990000E+02 -0.990000E+02 -0.990000E+02 -0.990000E+02 -0.990000E+02 -0.990000E+02 -0.990000E+02 -0.990000E+02 -0.990000E+02 -0.990000E+02 -0.990000E+02
 0.324980E+04  0.402025E+03 -0.990000E+02 -0.990000E+02 -0.990000E+02 -0.990000E+02 -0.990000E+02 -0.990000E+02 -0.990000E+02 -0.990000E+02 -0.990000E+02 -0.990000E+02 -0.990000E+02
 0.324980E+04  0.400075E+03 -0.990000E+02 -0.990000E+02 -0.990000E+02 -0.990000E+02 -0.990000E+02 -0.990000E+02 -0.990000E+02 -0.990000E+02 -0.990000E+02 -0.990000E+02 -0.990000E+02
 0.324980E+04  0.398125E+03 -0.990000E+02 -0.990000E+02 -0.990000E+02 -0.990000E+02 -0.990000E+02 -0.990000E+02 -0.990000E+02 -0.990000E+02 -0.990000E+02 -0.990000E+02 -0.990000E+02
 0.324980E+04  0.396175E+03 -0.990000E+02 -0.990000E+02 -0.990000E+02 -0.990000E+02 -0.990000E+02 -0.990000E+02 -0.990000E+02 -0.990000E+02 -0.990000E+02 -0.990000E+02 -0.990000E+02
 0.324980E+04  0.394225E+03 -0.990000E+02 -0.990000E+02 -0.990000E+02 -0.990000E+02 -0.990000E+02 -0.990000E+02 -0.990000E+02 -0.990000E+02 -0.990000E+02 -0.990000E+02 -0.990000E+02
 0.324980E+04  0.392275E+03 -0.990000E+02 -0.990000E+02 -0.990000E+02 -0.990000E+02 -0.990000E+02 -0.990000E+02 -0.990000E+02 -0.990000E+02 -0.990000E+02 -0.990000E+02 -0.990000E+02
 0.324980E+04  0.390325E+03 -0.990000E+02 -0.990000E+02 -0.990000E+02 -0.990000E+02 -0.990000E+02 -0.990000E+02 -0.990000E+02 -0.990000E+02 -0.990000E+02 -0.990000E+02 -0.990000E+02
 0.324980E+04  0.388375E+03 -0.990000E+02 -0.990000E+02 -0.990000E+02 -0.990000E+02 -0.990000E+02 -0.990000E+02 -0.990000E+02 -0.990000E+02 -0.990000E+02 -0.990000E+02 -0.990000E+02
 0.324980E+04  0.386425E+03 -0.990000E+02 -0.990000E+02 -0.990000E+02 -0.990000E+02 -0.990000E+02 -0.990000E+02 -0.990000E+02 -0.990000E+02 -0.990000E+02 -0.990000E+02 -0.990000E+02
 0.324980E+04  0.384475E+03 -0.990000E+02 -0.990000E+02 -0.990000E+02 -0.990000E+02 -0.990000E+02 -0.990000E+02 -0.990000E+02 -0.990000E+02 -0.990000E+02 -0.990000E+02 -0.990000E+02
 0.324980E+04  0.382525E+03 -0.990000E+02 -0.990000E+02 -0.990000E+02 -0.990000E+02 -0.990000E+02 -0.990000E+02 -0.990000E+02 -0.990000E+02 -0.990000E+02 -0.990000E+02 -0.990000E+02
 0.324980E+04  0.380575E+03 -0.990000E+02 -0.990000E+02 -0.990000E+02 -0.990000E+02 -0.990000E+02 -0.990000E+02 -0.990000E+02 -0.990000E+02 -0.990000E+02 -0.990000E+02 -0.990000E+02
 0.324980E+04  0.378625E+03 -0.990000E+02 -0.990000E+02 -0.990000E+02 -0.990000E+02 -0.990000E+02 -0.990000E+02 -0.990000E+02 -0.990000E+02 -0.990000E+02 -0.990000E+02 -0.990000E+02
 0.324980E+04  0.376675E+03 -0.990000E+02 -0.990000E+02 -0.990000E+02 -0.990000E+02 -0.990000E+02 -0.990000E+02 -0.990000E+02 -0.990000E+02 -0.990000E+02 -0.990000E+02 -0.990000E+02
 0.324980E+04  0.374725E+03 -0.990000E+02 -0.990000E+02 -0.990000E+02 -0.990000E+02 -0.990000E+02 -0.990000E+02 -0.990000E+02 -0.990000E+02 -0.990000E+02 -0.990000E+02 -0.990000E+02
 0.324980E+04  0.372775E+03 -0.990000E+02 -0.990000E+02 -0.990000E+02 -0.990000E+02 -0.990000E+02 -0.990000E+02 -0.990000E+02 -0.990000E+02 -0.990000E+02 -0.990000E+02 -0.990000E+02
 0.324980E+04  0.370825E+03 -0.990000E+02 -0.990000E+02 -0.990000E+02 -0.990000E+02 -0.990000E+02 -0.990000E+02 -0.990000E+02 -0.990000E+02 -0.990000E+02 -0.990000E+02 -0.990000E+02
 0.324980E+04  0.368875E+03 -0.990000E+02 -0.990000E+02 -0.990000E+02 -0.990000E+02 -0.990000E+02 -0.990000E+02 -0.990000E+02 -0.990000E+02 -0.990000E+02 -0.990000E+02 -0.990000E+02
 0.324980E+04  0.366925E+03 -0.990000E+02 -0.990000E+02 -0.990000E+02 -0.990000E+02 -0.990000E+02 -0.990000E+02 -0.990000E+02 -0.990000E+02 -0.990000E+02 -0.990000E+02 -0.990000E+02
 0.324980E+04  0.364975E+03 -0.990000E+02 -0.990000E+02 -0.990000E+02 -0.990000E+02 -0.990000E+02 -0.990000E+02 -0.990000E+02 -0.990000E+02 -0.990000E+02 -0.990000E+02 -0.990000E+02
 0.447435E+04  0.441199E+03 -0.354059E-02 -0.174431E-04  0.646057E+01  0.999947E+03  0.100000E+01  0.232171E+02  0.490940E+00  0.188277E-01  0.236231E+01  0.238116E+01  0.238116E+01
 0.447435E+04  0.439650E+03 -0.354059E-02 -0.174431E-04  0.646057E+01  0.999947E+03  0.100000E+01  0.232171E+02  0.490940E+00  0.188277E-01  0.236231E+01  0.238116E+01  0.238116E+01
 0.447435E+04  0.437125E+03  0.704852E-03 -0.229143E-04  0.646057E+01  0.999947E+03  0.100000E+01  0.232171E+02  0.490940E+00  0.188277E-01  0.236231E+01  0.238116E+01  0.238116E+01
 0.447435E+04  0.435175E+03  0.385814E-02 -0.246634E-04  0.646057E+01  0.999947E+03  0.100000E+01  0.232171E+02  0.490940E+00  0.188277E-01  0.236231E+01  0.238116E+01  0.238116E+01
 0.447435E+04  0.433225E+03  0.531935E-02 -0.247598E-04  0.646057E+01  0.999947E+03  0.100000E+01  0.232171E+02  0.490940E+00  0.188277E-01  0.236231E+01  0.238116E+01  0.238116E+01
 0.447435E+04  0.431275E+03  0.406535E-02 -0.287724E-04  0.646057E+01  0.999947E+03  0.100000E+01  0.232171E+02  0.490940E+00  0.188277E-01  0.236231E+01  0.238116E+01  0.238116E+01
 0.447435E+04  0.429325E+03  0.704727E-03 -0.373306E-04  0.646057E+01  0.999947E+03  0.100000E+01  0.232171E+02  0.490940E+00  0.188277E-01  0.236231E+01  0.238116E+01  0.238116E+01
 0.447435E+04  0.427375E+03  0.189196E-02 -0.484133E-04  0.646057E+01  0.999947E+03  0.100000E+01  0.232171E+02  0.490940E+00  0.188276E-01  0.236231E+01  0.238116E+01  0.238116E+01
 0.447435E+04  0.425425E+03  0.307704E-02 -0.642072E-04  0.646057E+01  0.999947E+03  0.100000E+01  0.232171E+02  0.490940E+00  0.188276E-01  0.236231E+01  0.238116E+01  0.238116E+01
 0.447435E+04  0.423475E+03  0.425166E-02 -0.797552E-04  0.646057E+01  0.999947E+03  0.100000E+01  0.232171E+02  0.490940E+00  0.188276E-01  0.236231E+01  0.238116E+01  0.238116E+01
 0.447435E+04  0.421525E+03  0.543165E-02 -0.900252E-04  0.646057E+01  0.999947E+03  0.100000E+01  0.232171E+02  0.490940E+00  0.188276E-01  0.236231E+01  0.238116E+01  0.238116E+01
 0.447435E+04  0.419575E+03  0.665049E-02 -0.980804E-04  0.646057E+01  0.999947E+03  0.100000E+01  0.232171E+02  0.490940E+00  0.188276E-01  0.236231E+01  0.238116E+01  0.238116E+01
 0.447435E+04  0.417625E+03  0.739046E-02  0.000000E+00  0.646057E+01  0.999947E+03  0.100000E+01  0.232171E+02  0.490940E+00  0.188276E-01  0.236231E+01  0.238116E+01  0.238116E+01
 0.447435E+04  0.416650E+03  0.739046E-02  0.000000E+00  0.646057E+01  0.999947E+03  0.100000E+01  0.232171E+02  0.490940E+00  0.188276E-01  0.236231E+01  0.238116E+01  0.238116E+01
 0.447435E+04  0.415675E+03 -0.990000E+02 -0.990000E+02 -0.990000E+02 -0.990000E+02 -0.990000E+02 -0.990000E+02 -0.990000E+02 -0.990000E+02 -0.990000E+02 -0.990000E+02 -0.990000E+02
 0.447435E+04  0.413725E+03 -0.990000E+02 -0.990000E+02 -0.990000E+02 -0.990000E+02 -0.990000E+02 -0.990000E+02 -0.990000E+02 -0.990000E+02 -0.990000E+02 -0.990000E+02 -0.990000E+02
 0.447435E+04  0.411775E+03 -0.990000E+02 -0.990000E+02 -0.990000E+02 -0.990000E+02 -0.990000E+02 -0.990000E+02 -0.990000E+02 -0.990000E+02 -0.990000E+02 -0.990000E+02 -0.990000E+02
 0.447435E+04  0.409825E+03 -0.990000E+02 -0.990000E+02 -0.990000E+02 -0.990000E+02 -0.990000E+02 -0.990000E+02 -0.990000E+02 -0.990000E+02 -0.990000E+02 -0.990000E+02 -0.990000E+02
 0.447435E+04  0.407875E+03 -0.990000E+02 -0.990000E+02 -0.990000E+02 -0.990000E+02 -0.990000E+02 -0.990000E+02 -0.990000E+02 -0.990000E+02 -0.990000E+02 -0.990000E+02 -0.990000E+02
 0.447435E+04  0.405925E+03 -0.990000E+02 -0.990000E+02 -0.990000E+02 -0.990000E+02 -0.990000E+02 -0.990000E+02 -0.990000E+02 -0.990000E+02 -0.990000E+02 -0.990000E+02 -0.990000E+02
 0.447435E+04  0.403975E+03 -0.990000E+02 -0.990000E+02 -0.990000E+02 -0.990000E+02 -0.990000E+02 -0.990000E+02 -0.990000E+02 -0.990000E+02 -0.990000E+02 -0.990000E+02 -0.990000E+02
 0.447435E+04  0.402025E+03 -0.990000E+02 -0.990000E+02 -0.990000E+02 -0.990000E+02 -0.990000E+02 -0.990000E+02 -0.990000E+02 -0.990000E+02 -0.990000E+02 -0.990000E+02 -0.990000E+02
 0.447435E+04  0.400075E+03 -0.990000E+02 -0.990000E+02 -0.990000E+02 -0.990000E+02 -0.990000E+02 -0.990000E+02 -0.990000E+02 -0.990000E+02 -0.990000E+02 -0.990000E+02 -0.990000E+02
 0.447435E+04  0.398125E+03 -0.990000E+02 -0.990000E+02 -0.990000E+02 -0.990000E+02 -0.990000E+02 -0.990000E+02 -0.990000E+02 -0.990000E+02 -0.990000E+02 -0.990000E+02 -0.990000E+02
 0.447435E+04  0.396175E+03 -0.990000E+02 -0.990000E+02 -0.990000E+02 -0.990000E+02 -0.990000E+02 -0.990000E+02 -0.990000E+02 -0.990000E+02 -0.990000E+02 -0.990000E+02 -0.990000E+02
 0.447435E+04  0.394225E+03 -0.990000E+02 -0.990000E+02 -0.990000E+02 -0.990000E+02 -0.990000E+02 -0.990000E+02 -0.990000E+02 -0.990000E+02 -0.990000E+02 -0.990000E+02 -0.990000E+02
 0.447435E+04  0.392275E+03 -0.990000E+02 -0.990000E+02 -0.990000E+02 -0.990000E+02 -0.990000E+02 -0.990000E+02 -0.990000E+02 -0.990000E+02 -0.990000E+02 -0.990000E+02 -0.990000E+02
 0.447435E+04  0.390325E+03 -0.990000E+02 -0.990000E+02 -0.990000E+02 -0.990000E+02 -0.990000E+02 -0.990000E+02 -0.990000E+02 -0.990000E+02 -0.990000E+02 -0.990000E+02 -0.990000E+02
 0.447435E+04  0.388375E+03 -0.990000E+02 -0.990000E+02 -0.990000E+02 -0.990000E+02 -0.990000E+02 -0.990000E+02 -0.990000E+02 -0.990000E+02 -0.990000E+02 -0.990000E+02 -0.990000E+02
 0.447435E+04  0.386425E+03 -0.990000E+02 -0.990000E+02 -0.990000E+02 -0.990000E+02 -0.990000E+02 -0.990000E+02 -0.990000E+02 -0.990000E+02 -0.990000E+02 -0.990000E+02 -0.990000E+02
 0.447435E+04  0.384475E+03 -0.990000E+02 -0.990000E+02 -0.990000E+02 -0.990000E+02 -0.990000E+02 -0.990000E+02 -0.990000E+02 -0.990000E+02 -0.990000E+02 -0.990000E+02 -0.990000E+02
 0.447435E+04  0.382525E+03 -0.990000E+02 -0.990000E+02 -0.990000E+02 -0.990000E+02 -0.990000E+02 -0.990000E+02 -0.990000E+02 -0.990000E+02 -0.990000E+02 -0.990000E+02 -0.990000E+02
 0.447435E+04  0.380575E+03 -0.990000E+02 -0.990000E+02 -0.990000E+02 -0.990000E+02 -0.990000E+02 -0.990000E+02 -0.990000E+02 -0.990000E+02 -0.990000E+02 -0.990000E+02 -0.990000E+02
 0.447435E+04  0.378625E+03 -0.990000E+02 -0.990000E+02 -0.990000E+02 -0.990000E+02 -0.990000E+02 -0.990000E+02 -0.990000E+02 -0.990000E+02 -0.990000E+02 -0.990000E+02 -0.990000E+02
 0.447435E+04  0.376675E+03 -0.990000E+02 -0.990000E+02 -0.990000E+02 -0.990000E+02 -0.990000E+02 -0.990000E+02 -0.990000E+02 -0.990000E+02 -0.990000E+02 -0.990000E+02 -0.990000E+02
 0.447435E+04  0.374725E+03 -0.990000E+02 -0.990000E+02 -0.990000E+02 -0.990000E+02 -0.990000E+02 -0.990000E+02 -0.990000E+02 -0.990000E+02 -0.990000E+02 -0.990000E+02 -0.990000E+02
 0.447435E+04  0.372775E+03 -0.990000E+02 -0.990000E+02 -0.990000E+02 -0.990000E+02 -0.990000E+02 -0.990000E+02 -0.990000E+02 -0.990000E+02 -0.990000E+02 -0.990000E+02 -0.990000E+02
 0.447435E+04  0.370825E+03 -0.990000E+02 -0.990000E+02 -0.990000E+02 -0.990000E+02 -0.990000E+02 -0.990000E+02 -0.990000E+02 -0.990000E+02 -0.990000E+02 -0.990000E+02 -0.990000E+02
 0.447435E+04  0.368875E+03 -0.990000E+02 -0.990000E+02 -0.990000E+02 -0.990000E+02 -0.990000E+02 -0.990000E+02 -0.990000E+02 -0.990000E+02 -0.990000E+02 -0.990000E+02 -0.990000E+02
 0.447435E+04  0.366925E+03 -0.990000E+02 -0.990000E+02 -0.990000E+02 -0.990000E+02 -0.990000E+02 -0.990000E+02 -0.990000E+02 -0.990000E+02 -0.990000E+02 -0.990000E+02 -0.990000E+02
 0.447435E+04  0.364975E+03 -0.990000E+02 -0.990000E+02 -0.990000E+02 -0.990000E+02 -0.990000E+02 -0.990000E+02 -0.990000E+02 -0.990000E+02 -0.990000E+02 -0.990000E+02 -0.990000E+02
 0.614775E+04  0.441199E+03 -0.944184E-04  0.343292E-04  0.661094E+01  0.999941E+03  0.100000E+01  0.230268E+02  0.499022E+00  0.187277E-02  0.245060E+01  0.245249E+01  0.245249E+01
 0.614775E+04  0.439650E+03 -0.944184E-04  0.343292E-04  0.661094E+01  0.999941E+03  0.100000E+01  0.230268E+02  0.499022E+00  0.187277E-02  0.245060E+01  0.245249E+01  0.245249E+01
 0.614775E+04  0.437125E+03  0.317701E-02  0.480712E-04  0.661094E+01  0.999941E+03  0.100000E+01  0.230268E+02  0.499022E+00  0.187276E-02  0.245060E+01  0.245249E+01  0.245249E+01
 0.614775E+04  0.435175E+03  0.547351E-02  0.567836E-04  0.661094E+01  0.999941E+03  0.100000E+01  0.230268E+02  0.499022E+00  0.187276E-02  0.245060E+01  0.245249E+01  0.245249E+01
 0.614775E+04  0.433225E+03  0.590949E-02  0.605181E-04  0.661094E+01  0.999941E+03  0.100000E+01  0.230268E+02  0.499022E+00  0.187276E-02  0.245060E+01  0.245249E+01  0.245249E+01
 0.614775E+04  0.431275E+03  0.332567E-02  0.623956E-04  0.661094E+01  0.999941E+03  0.100000E+01  0.230268E+02  0.499022E+00  0.187276E-02  0.245060E+01  0.245249E+01  0.245249E+01
 0.614775E+04  0.429325E+03 -0.324345E-03  0.578813E-04  0.661094E+01  0.999941E+03  0.100000E+01  0.230268E+02  0.499022E+00  0.187276E-02  0.245060E+01  0.245249E+01  0.245249E+01
 0.614775E+04  0.427375E+03  0.101330E-03  0.475313E-04  0.661094E+01  0.999941E+03  0.100000E+01  0.230268E+02  0.499022E+00  0.187276E-02  0.245060E+01  0.245249E+01  0.245249E+01
 0.614775E+04  0.425425E+03  0.578029E-03  0.318903E-04  0.661094E+01  0.999941E+03  0.100000E+01  0.230268E+02  0.499022E+00  0.187276E-02  0.245060E+01  0.245249E+01  0.245249E+01
 0.614775E+04  0.423475E+03  0.105384E-02  0.125313E-04  0.661094E+01  0.999941E+03  0.100000E+01  0.230268E+02  0.499022E+00  0.187276E-02  0.245060E+01  0.245249E+01  0.245249E+01
 0.614775E+04  0.421525E+03  0.124715E-02 -0.326663E-05  0.661094E+01  0.999941E+03  0.100000E+01  0.230268E+02  0.499022E+00  0.187276E-02  0.245060E+01  0.245249E+01  0.245249E+01
 0.614775E+04  0.419575E+03  0.126151E-02 -0.784076E-05  0.661094E+01  0.999941E+03  0.100000E+01  0.230268E+02  0.499022E+00  0.187276E-02  0.245061E+01  0.245249E+01  0.245249E+01
 0.614775E+04  0.417625E+03  0.155765E-02 -0.140479E-04  0.661094E+01  0.999941E+03  0.100000E+01  0.230268E+02  0.499022E+00  0.187276E-02  0.245061E+01  0.245249E+01  0.245249E+01
 0.614775E+04  0.415675E+03  0.179879E-02 -0.158594E-04  0.661094E+01  0.999941E+03  0.100000E+01  0.230268E+02  0.499022E+00  0.187275E-02  0.245061E+01  0.245249E+01  0.245249E+01
 0.614775E+04  0.413725E+03  0.209049E-02 -0.182249E-04  0.661094E+01  0.999941E+03  0.100000E+01  0.230268E+02  0.499022E+00  0.187275E-02  0.245061E+01  0.245249E+01  0.245249E+01
 0.614775E+04  0.411775E+03  0.234532E-02 -0.239709E-04  0.661094E+01  0.999941E+03  0.100000E+01  0.230268E+02  0.499022E+00  0.187275E-02  0.245061E+01  0.245249E+01  0.245249E+01
 0.614775E+04  0.409825E+03  0.256153E-02 -0.420338E-04  0.661094E+01  0.999941E+03  0.100000E+01  0.230268E+02  0.499022E+00  0.187275E-02  0.245061E+01  0.245249E+01  0.245249E+01
 0.614775E+04  0.407875E+03  0.293683E-02  0.000000E+00  0.661094E+01  0.999941E+03  0.100000E+01  0.230268E+02  0.499022E+00  0.187275E-02  0.245061E+01  0.245249E+01  0.245249E+01
 0.614775E+04  0.406900E+03  0.293683E-02  0.000000E+00  0.661094E+01  0.999941E+03  0.100000E+01  0.230268E+02  0.499022E+00  0.187275E-02  0.245061E+01  0.245249E+01  0.245249E+01
 0.614775E+04  0.405925E+03 -0.990000E+02 -0.990000E+02 -0.990000E+02 -0.990000E+02 -0.990000E+02 -0.990000E+02 -0.990000E+02 -0.990000E+02 -0.990000E+02 -0.990000E+02 -0.990000E+02
 0.614775E+04  0.403975E+03 -0.990000E+02 -0.990000E+02 -0.990000E+02 -0.990000E+02 -0.990000E+02 -0.990000E+02 -0.990000E+02 -0.990000E+02 -0.990000E+02 -0.990000E+02 -0.990000E+02
 0.614775E+04  0.402025E+03 -0.990000E+02 -0.990000E+02 -0.990000E+02 -0.990000E+02 -0.990000E+02 -0.990000E+02 -0.990000E+02 -0.990000E+02 -0.990000E+02 -0.990000E+02 -0.990000E+02
 0.614775E+04  0.400075E+03 -0.990000E+02 -0.990000E+02 -0.990000E+02 -0.990000E+02 -0.990000E+02 -0.990000E+02 -0.990000E+02 -0.990000E+02 -0.990000E+02 -0.990000E+02 -0.990000E+02
 0.614775E+04  0.398125E+03 -0.990000E+02 -0.990000E+02 -0.990000E+02 -0.990000E+02 -0.990000E+02 -0.990000E+02 -0.990000E+02 -0.990000E+02 -0.990000E+02 -0.990000E+02 -0.990000E+02
 0.614775E+04  0.396175E+03 -0.990000E+02 -0.990000E+02 -0.990000E+02 -0.990000E+02 -0.990000E+02 -0.990000E+02 -0.990000E+02 -0.990000E+02 -0.990000E+02 -0.990000E+02 -0.990000E+02
 0.614775E+04  0.394225E+03 -0.990000E+02 -0.990000E+02 -0.990000E+02 -0.990000E+02 -0.990000E+02 -0.990000E+02 -0.990000E+02 -0.990000E+02 -0.990000E+02 -0.990000E+02 -0.990000E+02
 0.614775E+04  0.392275E+03 -0.990000E+02 -0.990000E+02 -0.990000E+02 -0.990000E+02 -0.990000E+02 -0.990000E+02 -0.990000E+02 -0.990000E+02 -0.990000E+02 -0.990000E+02 -0.990000E+02
 0.614775E+04  0.390325E+03 -0.990000E+02 -0.990000E+02 -0.990000E+02 -0.990000E+02 -0.990000E+02 -0.990000E+02 -0.990000E+02 -0.990000E+02 -0.990000E+02 -0.990000E+02 -0.990000E+02
 0.614775E+04  0.388375E+03 -0.990000E+02 -0.990000E+02 -0.990000E+02 -0.990000E+02 -0.990000E+02 -0.990000E+02 -0.990000E+02 -0.990000E+02 -0.990000E+02 -0.990000E+02 -0.990000E+02
 0.614775E+04  0.386425E+03 -0.990000E+02 -0.990000E+02 -0.990000E+02 -0.990000E+02 -0.990000E+02 -0.990000E+02 -0.990000E+02 -0.990000E+02 -0.990000E+02 -0.990000E+02 -0.990000E+02
 0.614775E+04  0.384475E+03 -0.990000E+02 -0.990000E+02 -0.990000E+02 -0.990000E+02 -0.990000E+02 -0.990000E+02 -0.990000E+02 -0.990000E+02 -0.990000E+02 -0.990000E+02 -0.990000E+02
 0.614775E+04  0.382525E+03 -0.990000E+02 -0.990000E+02 -0.990000E+02 -0.990000E+02 -0.990000E+02 -0.990000E+02 -0.990000E+02 -0.990000E+02 -0.990000E+02 -0.990000E+02 -0.990000E+02
 0.614775E+04  0.380575E+03 -0.990000E+02 -0.990000E+02 -0.990000E+02 -0.990000E+02 -0.990000E+02 -0.990000E+02 -0.990000E+02 -0.990000E+02 -0.990000E+02 -0.990000E+02 -0.990000E+02
 0.614775E+04  0.378625E+03 -0.990000E+02 -0.990000E+02 -0.990000E+02 -0.990000E+02 -0.990000E+02 -0.990000E+02 -0.990000E+02 -0.990000E+02 -0.990000E+02 -0.990000E+02 -0.990000E+02
 0.614775E+04  0.376675E+03 -0.990000E+02 -0.990000E+02 -0.990000E+02 -0.990000E+02 -0.990000E+02 -0.990000E+02 -0.990000E+02 -0.990000E+02 -0.990000E+02 -0.990000E+02 -0.990000E+02
 0.614775E+04  0.374725E+03 -0.990000E+02 -0.990000E+02 -0.990000E+02 -0.990000E+02 -0.990000E+02 -0.990000E+02 -0.990000E+02 -0.990000E+02 -0.990000E+02 -0.990000E+02 -0.990000E+02
 0.614775E+04  0.372775E+03 -0.990000E+02 -0.990000E+02 -0.990000E+02 -0.990000E+02 -0.990000E+02 -0.990000E+02 -0.990000E+02 -0.990000E+02 -0.990000E+02 -0.990000E+02 -0.990000E+02
 0.614775E+04  0.370825E+03 -0.990000E+02 -0.990000E+02 -0.990000E+02 -0.990000E+02 -0.990000E+02 -0.990000E+02 -0.990000E+02 -0.990000E+02 -0.990000E+02 -0.990000E+02 -0.990000E+02
 0.614775E+04  0.368875E+03 -0.990000E+02 -0.990000E+02 -0.990000E+02 -0.990000E+02 -0.990000E+02 -0.990000E+02 -0.990000E+02 -0.990000E+02 -0.990000E+02 -0.990000E+02 -0.990000E+02
 0.614775E+04  0.366925E+03 -0.990000E+02 -0.990000E+02 -0.990000E+02 -0.990000E+02 -0.990000E+02 -0.990000E+02 -0.990000E+02 -0.990000E+02 -0.990000E+02 -0.990000E+02 -0.990000E+02